 Q-Chem 5.1, Q-Chem, Inc., Pleasanton, CA (2018)
 Q-Chem 5.1.1 for Intel X86 EM64T Linux

User input:
--------------------------------------------------------------
$comment
GHSLG peptide geom opt with no constraints.
$end

$molecule
0  1
N          0.09593        0.14597       -0.62693
C          1.50530       -0.14500       -0.37715
C          1.87802        0.09351        1.06605
O          1.03533        0.49789        1.85563
H          1.70152       -1.21174       -0.61914
H          2.13978        0.49097       -1.03300
H         -0.07333        1.16843       -0.48614
H         -0.11514       -0.07575       -1.62657
N          3.15971       -0.13504        1.47198
C          3.61308        0.05215        2.85467
C          5.14256       -0.06393        2.95434
O          5.78769       -0.41200        1.97437
C          2.90701       -0.99603        3.76376
H          3.25296       -2.01195        3.47278
H          1.81027       -0.96494        3.61571
C          3.11960       -0.78218        5.23272
N          2.74263        0.31590        5.90812
C          3.11735        0.09959        7.18198
H          2.95646        0.80545        7.98600
N          3.71722       -1.09870        7.34323
C          3.71713       -1.65557        6.11574
H          4.12857       -2.62911        5.88503
H          2.26191        1.16197        5.52960
H          3.82550       -0.43461        0.74458
H          3.33838        1.08573        3.16062
N          5.79679        0.21029        4.12199
C          7.24818        0.07579        4.26224
C          7.67852        0.07542        5.73050
O          6.86849        0.34559        6.60656
H          7.53347       -0.92325        3.86349
C          7.94957        1.20197        3.46697
H          7.62033        1.18287        2.40687
H          7.66194        2.18076        3.91419
O          9.34164        1.05670        3.49447
H          9.71397        1.86062        3.04748
H          5.24068        0.50046        4.93348
N          8.95973       -0.25782        6.06708
C          9.44469       -0.33151        7.44441
C         10.94667       -0.53943        7.41976
O         11.40090       -1.55282        6.90399
H          9.21976        0.63887        7.93615
H          9.61969       -0.47419        5.30585
C          8.72803       -1.48650        8.20863
H          7.63377       -1.32686        8.13740
H          8.93722       -2.44911        7.69224
C          9.01743       -1.65998        9.72620
H          8.33578       -2.46829       10.07468
C          8.68155       -0.39471       10.52512
H          8.79846       -0.58802       11.61277
H          7.62964       -0.09080       10.33905
H          9.35591        0.44226       10.24815
C         10.43958       -2.13973       10.04724
H         10.52054       -2.37117       11.13068
H         11.20217       -1.37175        9.82551
H         10.66893       -3.06703        9.48078
N         11.78408        0.39089        7.95670
C         13.22822        0.20927        7.94082
C         13.98312        1.34585        8.59211
O         13.39878        2.30400        9.07327
H         13.48325       -0.72812        8.48091
H         13.57254        0.12282        6.88762
H         11.37280        1.23433        8.38271
O         15.33084        1.30755        8.64772
H         15.83189        0.56667        8.27877

$end

$rem
JOBTYPE           opt
EXCHANGE        b3lyp
BASIS             6-31G*
--------------------------------------------------------------

   15   -1652.5185603723      8.46e-09  Convergence criterion met
 Total energy in the final basis set =    -1652.5185603723
   12   -1652.5480320685      9.04e-09  Convergence criterion met
 Total energy in the final basis set =    -1652.5480320685
   12   -1652.5591727121      6.99e-09  Convergence criterion met
 Total energy in the final basis set =    -1652.5591727121
   12   -1652.5621550900      6.00e-09  Convergence criterion met
 Total energy in the final basis set =    -1652.5621550900
   12   -1652.5641296074      4.96e-09  Convergence criterion met
 Total energy in the final basis set =    -1652.5641296074
   12   -1652.5656005845      5.25e-09  Convergence criterion met
 Total energy in the final basis set =    -1652.5656005845
   12   -1652.5668456455      3.42e-09  Convergence criterion met
 Total energy in the final basis set =    -1652.5668456455
   12   -1652.5679894148      3.79e-09  Convergence criterion met
   11   -1652.5706197117      4.47e-09  Convergence criterion met
 Total energy in the final basis set =    -1652.5706197117
   10   -1652.5706394975      6.17e-09  Convergence criterion met
 Total energy in the final basis set =    -1652.5706394975
   11   -1652.5706506451      7.84e-09  Convergence criterion met
 Total energy in the final basis set =    -1652.5706506451
   10   -1652.5706590187      5.73e-09  Convergence criterion met
 Total energy in the final basis set =    -1652.5706590187
   10   -1652.5706631245      4.44e-09  Convergence criterion met
 Total energy in the final basis set =    -1652.5706631245
   10   -1652.5706682066      6.67e-09  Convergence criterion met
 Total energy in the final basis set =    -1652.5706682066

             Standard Nuclear Orientation (Angstroms)
    I     Atom           X                Y                Z
 ----------------------------------------------------------------
    1      N       8.8899502146     1.0337618648    -0.8600915890
    2      C       7.6861591353     1.7592348283    -0.4734832070
    3      C       6.4655150161     0.8900072037    -0.7765722178
    4      O       6.4433677710     0.1309350066    -1.7447756980
    5      H       7.7198218542     2.0108130903     0.5949307636
    6      H       7.5253934631     2.7112083334    -1.0156813201
    7      H       8.6791807212     0.5347665362    -1.7239282191
    8      H       9.6459262666     1.6845156944    -1.0573043388
    9      N       5.3995932335     1.0548169386     0.0478818122
   10      C       4.1519124054     0.3458463865    -0.1518805737
   11      C       3.0591527780     1.1160602104     0.5946107150
   12      O       3.3054172451     1.6754002919     1.6630001390
   13      C       4.2465522666    -1.1143335290     0.4034111393
   14      H       4.4910345072    -1.0487739952     1.4686057514
   15      H       5.1001415421    -1.5827700185    -0.1004476461
   16      C       3.0050540714    -1.9307640943     0.2486969055
   17      N       2.5512642277    -2.4114447420    -0.9704767737
   18      C       1.3755649805    -3.0701168707    -0.7438180991
   19      H       0.8130355180    -3.5367981345    -1.5409918935
   20      N       1.0429125350    -3.0506663368     0.5280928959
   21      C       2.0496145778    -2.3428837456     1.1495434821
   22      H       2.0403456366    -2.1717412408     2.2184102901
   23      H       3.0256541049    -2.3210008895    -1.8582675456
   24      H       5.4497385177     1.6198417539     0.8879938366
   25      H       3.9496499429     0.3097948634    -1.2273597674
   26      N       1.8318423778     1.0948317018     0.0197299275
   27      C       0.6261113266     1.3455933178     0.7878487608
   28      C      -0.4866526645     0.5092054679     0.1160380774
   29      O      -0.2647859008    -0.1059964874    -0.9297837112
   30      H       0.7700531600     0.9927602804     1.8170875751
   31      C       0.2919202572     2.8414885786     0.8825069057
   32      H       1.1948769386     3.3698958421     1.2116926138
   33      H      -0.0072682296     3.2272719974    -0.1035549578
   34      O      -0.7587152673     2.9632780430     1.8407342475
   35      H      -1.0572798206     3.8838351753     1.8629237497
   36      H       1.6540015413     0.4883823209    -0.7788898841
   37      N      -1.6688254997     0.4888526697     0.7645949795
   38      C      -2.7630032520    -0.3962159288     0.3636179382
   39      C      -4.0527554081     0.4030373206     0.5687981150
   40      O      -4.3483361883     0.8738782218     1.6644753061
   41      H      -2.6024952577    -0.6282909987    -0.6918469140
   42      H      -1.8051586245     1.0983364749     1.5649496478
   43      C      -2.7159375376    -1.6894595225     1.2142573133
   44      H      -1.6759551208    -2.0365123505     1.1812438678
   45      H      -2.9328946451    -1.4040964617     2.2515535637
   46      C      -3.6217343961    -2.8723321408     0.8033225533
   47      H      -3.3492118624    -3.6779804455     1.5005435090
   48      C      -3.3099275035    -3.3834451034    -0.6119400512
   49      H      -3.8624889276    -4.3066371005    -0.8232689421
   50      H      -2.2405921223    -3.5938152708    -0.7269342790
   51      H      -3.5926232265    -2.6545655495    -1.3825376296
   52      C      -5.1257549012    -2.6140483272     0.9897259059
   53      H      -5.6905307384    -3.5494930766     0.8981758481
   54      H      -5.5182340074    -1.9255087394     0.2323253088
   55      H      -5.3399719493    -2.1861490620     1.9758451889
   56      N      -4.8331631585     0.5850736527    -0.5289315828
   57      C      -6.0696414034     1.3201990569    -0.4438842323
   58      C      -6.6948060301     1.4151177044    -1.8306261404
   59      O      -6.1948657965     0.9409623335    -2.8205365111
   60      H      -6.7713146755     0.8296569712     0.2469398600
   61      H      -5.8971795738     2.3292178967    -0.0421091654
   62      H      -4.5769263577     0.2411527943    -1.4469279422
   63      O      -7.8721080306     2.0760193618    -1.8945537468
   64      H      -8.1386820234     2.3893460425    -1.0134840018
 ----------------------------------------------------------------

   10   -1652.5706680608      6.17e-09  Convergence criterion met
 Total energy in the final basis set =    -1652.5706680608
 Final energy is   -1652.57066806079
 **  OPTIMIZATION CONVERGED  **

                    Orbital Energies (a.u.)
 --------------------------------------------------------------

 Alpha MOs
 -- Occupied --
-19.224 -19.168 -19.164 -19.127 -19.126 -19.125 -19.116 -14.389
-14.379 -14.364 -14.363 -14.363 -14.309 -14.307 -10.349 -10.298
-10.296 -10.296 -10.288 -10.264 -10.249 -10.244 -10.242 -10.236
-10.236 -10.218 -10.218 -10.206 -10.193 -10.188 -10.179 -10.170
-10.170  -1.129  -1.052  -1.050  -1.046  -1.041  -1.037  -1.033
 -1.009  -0.942  -0.933  -0.928  -0.928  -0.876  -0.867  -0.809
 -0.800  -0.778  -0.768  -0.739  -0.730  -0.690  -0.679  -0.671
 -0.663  -0.647  -0.636  -0.612  -0.610  -0.597  -0.589  -0.585
 -0.581  -0.576  -0.560  -0.542  -0.534  -0.529  -0.516  -0.510
 -0.502  -0.497  -0.486  -0.482  -0.477  -0.470  -0.464  -0.458
 -0.458  -0.450  -0.446  -0.443  -0.436  -0.435  -0.431  -0.430
 -0.429  -0.426  -0.417  -0.410  -0.408  -0.404  -0.402  -0.401
 -0.395  -0.394  -0.386  -0.383  -0.377  -0.376  -0.372  -0.368
 -0.357  -0.356  -0.347  -0.343  -0.325  -0.322  -0.319  -0.305
 -0.294  -0.277  -0.274  -0.273  -0.271  -0.270  -0.264  -0.262
 -0.258  -0.255  -0.249  -0.229  -0.218

          Ground-State Mulliken Net Atomic Charges

     Atom                 Charge (a.u.)
  ----------------------------------------
      1 N                    -0.720592
      2 C                    -0.211614
      3 C                     0.615151
      4 O                    -0.539567
      5 H                     0.146833
      6 H                     0.146358
      7 H                     0.320054
      8 H                     0.295406
      9 N                    -0.611694
     10 C                    -0.031409
     11 C                     0.612496
     12 O                    -0.544870
     13 C                    -0.356515
     14 H                     0.172626
     15 H                     0.185599
     16 C                     0.311774
     17 N                    -0.609810
     18 C                     0.228932
     19 H                     0.157632
     20 N                    -0.433445
     21 C                    -0.082229
     22 H                     0.135268
     23 H                     0.339336
     24 H                     0.346815
     25 H                     0.162241
     26 N                    -0.617549
     27 C                    -0.056939
     28 C                     0.614825
     29 O                    -0.546682
     30 H                     0.192843
     31 C                    -0.034558
     32 H                     0.167812
     33 H                     0.135473
     34 O                    -0.627165
     35 H                     0.407288
     36 H                     0.362321
     37 N                    -0.614261
     38 C                    -0.048498
     39 C                     0.627973
     40 O                    -0.541433
     41 H                     0.172018
     42 H                     0.372284
     43 C                    -0.281318
     44 H                     0.183613
     45 H                     0.146866
     46 C                    -0.072792
     47 H                     0.136563
     48 C                    -0.451404
     49 H                     0.141676
     50 H                     0.161808
     51 H                     0.130288
     52 C                    -0.456051
     53 H                     0.141536
     54 H                     0.134160
     55 H                     0.151631
     56 N                    -0.619923
     57 C                    -0.219573
     58 C                     0.596896
     59 O                    -0.436030
     60 H                     0.194117
     61 H                     0.194145
     62 H                     0.360287
     63 O                    -0.557404
     64 H                     0.420381
  ----------------------------------------
  Sum of atomic charges =     0.000000

                    Cartesian Multipole Moments
 -----------------------------------------------------------------
    Charge (ESU x 10^10)
                 0.0000
    Dipole Moment (Debye)
         X      -3.0842      Y       4.3469      Z      -0.3393
       Tot       5.3407
    Quadrupole Moments (Debye-Ang)
        XX    -180.8501     XY       0.0188     YY    -176.3252
        XZ     -16.4149     YZ       6.0011     ZZ    -210.1669

 Total job time:  3143.29s(wall), 24778.34s(cpu)
        *  Thank you very much for using Q-Chem.  Have a nice day.  *
