 Q-Chem 5.1, Q-Chem, Inc., Pleasanton, CA (2018)
 Q-Chem 5.1.1 for Intel X86 EM64T Linux

User input:
--------------------------------------------------------------
$comment
GHSLG peptide geom opt with no constraints.
$end

$molecule
0  1
N          0.09593        0.14597       -0.62693
C          1.50530       -0.14500       -0.37715
C          1.87802        0.09351        1.06605
O          1.03533        0.49789        1.85563
H          1.70152       -1.21174       -0.61914
H          2.13978        0.49097       -1.03300
H         -0.07333        1.16843       -0.48614
H         -0.11514       -0.07575       -1.62657
N          3.15971       -0.13504        1.47198
C          3.61308        0.05215        2.85467
C          5.14256       -0.06393        2.95434
O          5.78769       -0.41200        1.97437
C          2.90701       -0.99603        3.76376
H          3.25296       -2.01195        3.47278
H          1.81027       -0.96494        3.61571
C          3.11960       -0.78218        5.23272
N          2.74263        0.31590        5.90812
C          3.11735        0.09959        7.18198
H          2.95646        0.80545        7.98600
N          3.71722       -1.09870        7.34323
C          3.71713       -1.65557        6.11574
H          4.12857       -2.62911        5.88503
H          2.26191        1.16197        5.52960
H          3.82550       -0.43461        0.74458
H          3.33838        1.08573        3.16062
N          5.79679        0.21029        4.12199
C          7.24818        0.07579        4.26224
C          7.67852        0.07542        5.73050
O          6.86849        0.34559        6.60656
H          7.53347       -0.92325        3.86349
C          7.94957        1.20197        3.46697
H          7.62033        1.18287        2.40687
H          7.66194        2.18076        3.91419
O          9.34164        1.05670        3.49447
H          9.71397        1.86062        3.04748
H          5.24068        0.50046        4.93348
N          8.95973       -0.25782        6.06708
C          9.44469       -0.33151        7.44441
C         10.94667       -0.53943        7.41976
O         11.40090       -1.55282        6.90399
H          9.21976        0.63887        7.93615
H          9.61969       -0.47419        5.30585
C          8.72803       -1.48650        8.20863
H          7.63377       -1.32686        8.13740
H          8.93722       -2.44911        7.69224
C          9.01743       -1.65998        9.72620
H          8.33578       -2.46829       10.07468
C          8.68155       -0.39471       10.52512
H          8.79846       -0.58802       11.61277
H          7.62964       -0.09080       10.33905
H          9.35591        0.44226       10.24815
C         10.43958       -2.13973       10.04724
H         10.52054       -2.37117       11.13068
H         11.20217       -1.37175        9.82551
H         10.66893       -3.06703        9.48078
N         11.78408        0.39089        7.95670
C         13.22822        0.20927        7.94082
C         13.98312        1.34585        8.59211
O         13.39878        2.30400        9.07327
H         13.48325       -0.72812        8.48091
H         13.57254        0.12282        6.88762
H         11.37280        1.23433        8.38271
O         15.33084        1.30755        8.64772
H         15.83189        0.56667        8.27877

$end

$rem
JOBTYPE           opt
EXCHANGE        B97M-V
BASIS             6-31G*
--------------------------------------------------------------

   16   -1652.3169961305      5.23e-09  Convergence criterion met
 Total energy in the final basis set =    -1652.3169961305
   12   -1652.3514893419      5.66e-09  Convergence criterion met
 Total energy in the final basis set =    -1652.3514893419
   12   -1652.3648038712      6.48e-09  Convergence criterion met
 Total energy in the final basis set =    -1652.3648038712
   12   -1652.3686639449      5.28e-09  Convergence criterion met
 Total energy in the final basis set =    -1652.3686639449
   12   -1652.3713248839      6.85e-09  Convergence criterion met
 Total energy in the final basis set =    -1652.3713248839
   12   -1652.3727981631      4.89e-09  Convergence criterion met
 Total energy in the final basis set =    -1652.3727981631
   12   -1652.3742631339      5.99e-09  Convergence criterion met
 Total energy in the final basis set =    -1652.3742631339
   11   -1652.3755165293      9.30e-09  Convergence criterion met
   11   -1652.3794468224      7.94e-09  Convergence criterion met
 Total energy in the final basis set =    -1652.3794468224
   10   -1652.3794685824      8.45e-09  Convergence criterion met
 Total energy in the final basis set =    -1652.3794685824
   10   -1652.3794740044      4.11e-09  Convergence criterion met
 Total energy in the final basis set =    -1652.3794740044
   10   -1652.3794781444      2.95e-09  Convergence criterion met
 Total energy in the final basis set =    -1652.3794781444
   10   -1652.3794796093      3.08e-09  Convergence criterion met
 Total energy in the final basis set =    -1652.3794796093
    9   -1652.3794820388      5.93e-09  Convergence criterion met
 Total energy in the final basis set =    -1652.3794820388

             Standard Nuclear Orientation (Angstroms)
    I     Atom           X                Y                Z
 ----------------------------------------------------------------
    1      N       8.9486730622     0.4810868069    -0.6339671937
    2      C       7.8454576703     1.3760834458    -0.3464403952
    3      C       6.5540054915     0.6840094183    -0.7257718988
    4      O       6.4976354165    -0.0957656135    -1.6701583004
    5      H       7.8412752150     1.6360323851     0.7172148956
    6      H       7.8602122253     2.3343741469    -0.8976962897
    7      H       8.7584839339     0.0681200196    -1.5419541799
    8      H       9.8029790349     1.0161584413    -0.7326850853
    9      N       5.4641209121     1.0298647157    -0.0032888251
   10      C       4.1912821897     0.3977792205    -0.2264638792
   11      C       3.1325344002     1.1987097895     0.4993678287
   12      O       3.3716536526     1.7073217640     1.5893607153
   13      C       4.1860566976    -1.0412625580     0.3550894168
   14      H       4.4928578031    -0.9633976761     1.4006090665
   15      H       4.9617056275    -1.6028933691    -0.1742425075
   16      C       2.8667228719    -1.7118213055     0.3035942319
   17      N       2.2868501196    -2.1677737730    -0.8617732891
   18      C       1.0532649065    -2.6443988616    -0.5492854442
   19      H       0.3887146173    -3.0493797311    -1.2953019271
   20      N       0.7918383835    -2.5261624246     0.7290789414
   21      C       1.9131006101    -1.9391493671     1.2624872717
   22      H       1.9845367230    -1.7251277252     2.3175114533
   23      H       2.7108820638    -2.1729271857    -1.7740698875
   24      H       5.5427299659     1.5388007985     0.8658686585
   25      H       4.0086115112     0.3584604291    -1.3028420418
   26      N       1.9237554916     1.2335202872    -0.0997998733
   27      C       0.7293909538     1.4385450260     0.6807419075
   28      C      -0.3827083929     0.6646594877    -0.0232404091
   29      O      -0.1650700792     0.0547395031    -1.0694524079
   30      H       0.8761230905     1.0193043735     1.6841144606
   31      C       0.4230940143     2.9170249131     0.8649025136
   32      H       1.3454670990     3.4148756221     1.1812169470
   33      H       0.0967435875     3.3534660751    -0.0891952848
   34      O      -0.5826879924     3.0016595046     1.8616451085
   35      H      -0.8723662040     3.9185260357     1.9134731004
   36      H       1.7552964434     0.6435442620    -0.9089478430
   37      N      -1.5782733569     0.7019007856     0.5843849500
   38      C      -2.6575458553    -0.1818620251     0.1898889801
   39      C      -3.9441907502     0.5964964734     0.3514062903
   40      O      -4.2260242575     1.1545960304     1.4023885707
   41      H      -2.4784770331    -0.4467607056    -0.8524097194
   42      H      -1.6918021031     1.2498522165     1.4274968847
   43      C      -2.6270658161    -1.4326147602     1.0778593225
   44      H      -1.5989883408    -1.8059497051     1.0332078482
   45      H      -2.8036644030    -1.1036133857     2.1083698987
   46      C      -3.5821769998    -2.5773544524     0.7304596054
   47      H      -3.2402843496    -3.4220527748     1.3427091697
   48      C      -3.4649356731    -2.9986349839    -0.7289970699
   49      H      -3.9788406107    -3.9459270801    -0.9083762499
   50      H      -2.4192895231    -3.1194797601    -1.0255086961
   51      H      -3.9242023365    -2.2630128955    -1.3995134757
   52      C      -5.0355564264    -2.3134590206     1.1062727392
   53      H      -5.6295689585    -3.2257449863     1.0052254880
   54      H      -5.4926178629    -1.5688028874     0.4488637118
   55      H      -5.1271784492    -1.9620973084     2.1367899044
   56      N      -4.7484494571     0.6391799243    -0.7442380595
   57      C      -6.1136534889     1.0569786660    -0.6158528529
   58      C      -7.0034918124     0.1354804098    -1.4166428148
   59      O      -6.5913129578    -0.7997818784    -2.0525211432
   60      H      -6.3844284632     1.0397529746     0.4449380524
   61      H      -6.2602848152     2.0906096830    -0.9568536860
   62      H      -4.5760014369    -0.0061061337    -1.5036533846
   63      O      -8.3152738747     0.4298406705    -1.3946617694
   64      H      -8.4687056717     1.2105160949    -0.8415121368
 ----------------------------------------------------------------

    9   -1652.3794828599      5.71e-09  Convergence criterion met
 Total energy in the final basis set =    -1652.3794828599
 Final energy is   -1652.37948285990
 **  OPTIMIZATION CONVERGED  **

                    Orbital Energies (a.u.)
 --------------------------------------------------------------

 Alpha MOs
 -- Occupied --
-19.234 -19.179 -19.172 -19.139 -19.138 -19.135 -19.128 -14.396
-14.383 -14.369 -14.369 -14.366 -14.316 -14.314 -10.338 -10.290
-10.287 -10.286 -10.281 -10.252 -10.240 -10.237 -10.233 -10.230
-10.228 -10.213 -10.211 -10.200 -10.186 -10.183 -10.170 -10.166
-10.163  -1.119  -1.043  -1.040  -1.036  -1.032  -1.028  -1.025
 -0.999  -0.931  -0.922  -0.918  -0.917  -0.865  -0.857  -0.793
 -0.784  -0.759  -0.746  -0.720  -0.710  -0.671  -0.658  -0.647
 -0.640  -0.621  -0.610  -0.589  -0.580  -0.569  -0.563  -0.562
 -0.554  -0.548  -0.534  -0.518  -0.506  -0.503  -0.493  -0.479
 -0.471  -0.468  -0.459  -0.452  -0.448  -0.442  -0.438  -0.430
 -0.428  -0.422  -0.418  -0.411  -0.407  -0.407  -0.404  -0.404
 -0.400  -0.398  -0.391  -0.383  -0.378  -0.374  -0.374  -0.372
 -0.366  -0.364  -0.355  -0.354  -0.347  -0.346  -0.343  -0.339
 -0.328  -0.326  -0.318  -0.312  -0.300  -0.296  -0.291  -0.271
 -0.261  -0.256  -0.250  -0.247  -0.245  -0.241  -0.239  -0.233
 -0.231  -0.226  -0.222  -0.206  -0.195

          Ground-State Mulliken Net Atomic Charges

     Atom                 Charge (a.u.)
  ----------------------------------------
      1 N                    -0.739965
      2 C                    -0.235525
      3 C                     0.648973
      4 O                    -0.539657
      5 H                     0.153731
      6 H                     0.152955
      7 H                     0.327961
      8 H                     0.307465
      9 N                    -0.650022
     10 C                    -0.051717
     11 C                     0.645611
     12 O                    -0.542585
     13 C                    -0.380997
     14 H                     0.183884
     15 H                     0.199564
     16 C                     0.274171
     17 N                    -0.622090
     18 C                     0.234994
     19 H                     0.166900
     20 N                    -0.438163
     21 C                    -0.079591
     22 H                     0.154210
     23 H                     0.359086
     24 H                     0.359819
     25 H                     0.172595
     26 N                    -0.645106
     27 C                    -0.084405
     28 C                     0.652599
     29 O                    -0.552039
     30 H                     0.200286
     31 C                    -0.030793
     32 H                     0.170458
     33 H                     0.137831
     34 O                    -0.641419
     35 H                     0.418869
     36 H                     0.369379
     37 N                    -0.646649
     38 C                    -0.077813
     39 C                     0.645259
     40 O                    -0.533082
     41 H                     0.181963
     42 H                     0.387368
     43 C                    -0.315747
     44 H                     0.211464
     45 H                     0.152083
     46 C                    -0.104439
     47 H                     0.148771
     48 C                    -0.473638
     49 H                     0.159756
     50 H                     0.158808
     51 H                     0.139625
     52 C                    -0.465784
     53 H                     0.155810
     54 H                     0.130266
     55 H                     0.158867
     56 N                    -0.627444
     57 C                    -0.284382
     58 C                     0.643246
     59 O                    -0.445910
     60 H                     0.221973
     61 H                     0.194171
     62 H                     0.372132
     63 O                    -0.570836
     64 H                     0.426893
  ----------------------------------------
  Sum of atomic charges =     0.000000

                    Cartesian Multipole Moments
 -----------------------------------------------------------------
    Charge (ESU x 10^10)
                -0.0000
    Dipole Moment (Debye)
         X      -2.3172      Y       4.9559      Z      -1.3522
       Tot       5.6355
    Quadrupole Moments (Debye-Ang)
        XX    -179.2275     XY      -8.6051     YY    -180.4168
        XZ      -9.2389     YZ      -0.6008     ZZ    -202.7841

 Total job time:  77357.48s(wall), 569863.28s(cpu)
        *  Thank you very much for using Q-Chem.  Have a nice day.  *
