 Q-Chem 5.1, Q-Chem, Inc., Pleasanton, CA (2018)
 Q-Chem 5.1.1 for Intel X86 EM64T Linux

User input:
--------------------------------------------------------------
$comment
malonyl-SNAC geom opt with no constraints.
$end

$molecule
0  1
C          2.23059        2.37870        1.69792
H          2.59004        2.00037        2.67921
H          2.64994        3.39449        1.53967
C          0.72724        2.47014        1.75197
O          0.01965        1.84755        0.97416
S         -0.04166        3.52267        2.98721
C         -0.16025        2.22930        4.27735
H          0.50981        1.37256        4.04818
H          0.19343        2.66856        5.23404
N         -1.52578        1.76321        4.41263
H         -2.25635        2.15627        3.79935
C         -1.87521        0.82371        5.33149
O         -1.03468        0.33679        6.07491
C         -3.30227        0.37760        5.44284
H         -3.94576        1.24740        5.69152
H         -3.41439       -0.38871        6.23966
H         -3.63372       -0.05879        4.47757
C          2.72820        1.47893        0.59598
O          3.38659        0.48840        0.87069
O          2.47079        1.76416       -0.69843
H          1.96808        2.55023       -0.95414

$end

$rem
JOBTYPE           opt
EXCHANGE        b3lyp
BASIS             6-31G*
$end
--------------------------------------------------------------

   16    -987.8780318111      3.17e-09  Convergence criterion met
 Total energy in the final basis set =     -987.8780318111
   13    -987.8892197785      8.72e-09  Convergence criterion met
 Total energy in the final basis set =     -987.8892197785
   13    -987.8918908486      2.48e-09  Convergence criterion met
 Total energy in the final basis set =     -987.8918908486
   13    -987.8940895332      3.57e-09  Convergence criterion met
 Total energy in the final basis set =     -987.8940895332
   13    -987.8963122698      6.33e-09  Convergence criterion met
 Total energy in the final basis set =     -987.8963122698
   13    -987.8984251732      7.66e-09  Convergence criterion met
 Total energy in the final basis set =     -987.8984251732
   13    -987.9005509184      9.01e-09  Convergence criterion met
 Total energy in the final basis set =     -987.9005509184
   13    -987.9025768916      7.99e-09  Convergence criterion met
   12    -987.9267037489      7.08e-09  Convergence criterion met
 Total energy in the final basis set =     -987.9267037489
   12    -987.9267808880      7.51e-09  Convergence criterion met
 Total energy in the final basis set =     -987.9267808880
   11    -987.9268768064      6.97e-09  Convergence criterion met
 Total energy in the final basis set =     -987.9268768064
   11    -987.9269010015      6.02e-09  Convergence criterion met
 Total energy in the final basis set =     -987.9269010015
   11    -987.9269111508      3.49e-09  Convergence criterion met
 Total energy in the final basis set =     -987.9269111508
   10    -987.9269139696      9.22e-09  Convergence criterion met
 Total energy in the final basis set =     -987.9269139696

             Standard Nuclear Orientation (Angstroms)
    I     Atom           X                Y                Z
 ----------------------------------------------------------------
    1      C      -2.2003315967     0.8361255828    -0.3481847812
    2      H      -2.3606165591     1.3702776002    -1.2858756749
    3      H      -2.0609089640     1.5913131604     0.4396000563
    4      C      -0.9366924556    -0.0040404534    -0.3723130010
    5      O      -0.7210864246    -0.8720350431     0.4724689065
    6      S       0.2105264815     0.3832262967    -1.6607134495
    7      C       1.5153996050    -0.8998927571    -1.2524779510
    8      H       1.0036391082    -1.8622147097    -1.2513104280
    9      H       2.2278851828    -0.8334784140    -2.0743725986
   10      N       2.1997976113    -0.6927506966    -0.0212560728
   11      H       1.6926541408    -0.9178696156     0.8242293518
   12      C       3.3481566696     0.0746404456     0.0423304498
   13      O       3.8823089430     0.5144685212    -0.9633491656
   14      C       3.8932527127     0.2804099610     1.4449629152
   15      H       3.1414954498     0.7352520954     2.1007859314
   16      H       4.7652907597     0.9327702361     1.3898988476
   17      H       4.1881529748    -0.6774603280     1.8890551728
   18      C      -3.4985411736     0.0739626622    -0.0018634608
   19      O      -4.5584668169     0.4107985328    -0.4646702016
   20      O      -3.3806380235    -0.9247388572     0.8849817139
   21      H      -2.4264360665    -1.0880551785     1.0655501524
 ----------------------------------------------------------------

    9    -987.9269148747      6.86e-09  Convergence criterion met
 Total energy in the final basis set =     -987.9269148747
 Final energy is   -987.926914874661
 **  OPTIMIZATION CONVERGED  **

                    Orbital Energies (a.u.)
 --------------------------------------------------------------

 Alpha MOs
 -- Occupied --
-88.920 -19.195 -19.192 -19.139 -19.132 -14.383 -10.342 -10.332
-10.308 -10.279 -10.239 -10.207  -7.983  -5.947  -5.943  -5.939
 -1.108  -1.089  -1.052  -1.022  -0.948  -0.828  -0.791  -0.756
 -0.693  -0.619  -0.611  -0.587  -0.529  -0.528  -0.510  -0.503
 -0.487  -0.472  -0.458  -0.445  -0.433  -0.432  -0.419  -0.412
 -0.408  -0.401  -0.381  -0.367  -0.318  -0.305  -0.294  -0.277
 -0.275  -0.267

          Ground-State Mulliken Net Atomic Charges

     Atom                 Charge (a.u.)
  ----------------------------------------
      1 C                    -0.467093
      2 H                     0.212035
      3 H                     0.223744
      4 C                     0.269356
      5 O                    -0.483528
      6 S                     0.177283
      7 C                    -0.286321
      8 H                     0.207662
      9 H                     0.227667
     10 N                    -0.562372
     11 H                     0.347913
     12 C                     0.586331
     13 O                    -0.485716
     14 C                    -0.545152
     15 H                     0.168954
     16 H                     0.195194
     17 H                     0.180389
     18 C                     0.602528
     19 O                    -0.433440
     20 O                    -0.571495
     21 H                     0.436062
  ----------------------------------------
  Sum of atomic charges =     0.000000

                    Cartesian Multipole Moments
 -----------------------------------------------------------------
    Charge (ESU x 10^10)
                 0.0000
    Dipole Moment (Debye)
         X       3.3250      Y      -0.5436      Z       2.1076
       Tot       3.9741
    Quadrupole Moments (Debye-Ang)
        XX    -108.9610     XY      -6.9791     YY     -74.6103
        XZ       7.6397     YZ       3.9852     ZZ     -74.1385

 Total job time:  396.01s(wall), 3146.80s(cpu)
        *  Thank you very much for using Q-Chem.  Have a nice day.  *
