 Q-Chem 5.1, Q-Chem, Inc., Pleasanton, CA (2018)
 Q-Chem 5.1.1 for Intel X86 EM64T Linux

User input:
--------------------------------------------------------------
$comment
malonyl-SNAC geom opt with no constraints.
$end

$molecule
0  1
C          2.23059        2.37870        1.69792
H          2.59004        2.00037        2.67921
H          2.64994        3.39449        1.53967
C          0.72724        2.47014        1.75197
O          0.01965        1.84755        0.97416
S         -0.04166        3.52267        2.98721
C         -0.16025        2.22930        4.27735
H          0.50981        1.37256        4.04818
H          0.19343        2.66856        5.23404
N         -1.52578        1.76321        4.41263
H         -2.25635        2.15627        3.79935
C         -1.87521        0.82371        5.33149
O         -1.03468        0.33679        6.07491
C         -3.30227        0.37760        5.44284
H         -3.94576        1.24740        5.69152
H         -3.41439       -0.38871        6.23966
H         -3.63372       -0.05879        4.47757
C          2.72820        1.47893        0.59598
O          3.38659        0.48840        0.87069
O          2.47079        1.76416       -0.69843
H          1.96808        2.55023       -0.95414

$end

$rem
JOBTYPE           opt
EXCHANGE        B97M-V
BASIS             6-31G*
$end
--------------------------------------------------------------

   17    -987.6454454635      3.50e-09  Convergence criterion met
 Total energy in the final basis set =     -987.6454454635
   12    -987.6576796369      8.65e-09  Convergence criterion met
 Total energy in the final basis set =     -987.6576796369
   12    -987.6603556397      6.68e-09  Convergence criterion met
 Total energy in the final basis set =     -987.6603556397
   12    -987.6623635535      4.93e-09  Convergence criterion met
 Total energy in the final basis set =     -987.6623635535
   12    -987.6640885576      4.48e-09  Convergence criterion met
 Total energy in the final basis set =     -987.6640885576
   12    -987.6658082703      9.34e-09  Convergence criterion met
 Total energy in the final basis set =     -987.6658082703
   13    -987.6621539880      6.70e-09  Convergence criterion met
 Total energy in the final basis set =     -987.6621539880
   13    -987.6676048243      4.32e-09  Convergence criterion met
   12    -987.6973177444      8.24e-09  Convergence criterion met
 Total energy in the final basis set =     -987.6973177444
   12    -987.6975758755      9.97e-09  Convergence criterion met
 Total energy in the final basis set =     -987.6975758755
   12    -987.6976494571      9.23e-09  Convergence criterion met
 Total energy in the final basis set =     -987.6976494571
   12    -987.6977338360      5.72e-09  Convergence criterion met
 Total energy in the final basis set =     -987.6977338360
   10    -987.6977503022      8.39e-09  Convergence criterion met
 Total energy in the final basis set =     -987.6977503022
   10    -987.6977539662      6.67e-09  Convergence criterion met
 Total energy in the final basis set =     -987.6977539662

             Standard Nuclear Orientation (Angstroms)
    I     Atom           X                Y                Z
 ----------------------------------------------------------------
    1      C      -2.1020795017     0.8324430503    -0.2663353602
    2      H      -2.2361134219     1.4618876232    -1.1440410185
    3      H      -1.9665121943     1.4996356070     0.5942929902
    4      C      -0.8639552650    -0.0160674055    -0.3522413648
    5      O      -0.6512424001    -0.9321064204     0.4374326658
    6      S       0.2551487923     0.4185667203    -1.6249497019
    7      C       1.5148417574    -0.8934190168    -1.2968190866
    8      H       0.9963036834    -1.8477069271    -1.3346623863
    9      H       2.2272402818    -0.8075152161    -2.1127959886
   10      N       2.1964824776    -0.7566664006    -0.0602555969
   11      H       1.6774934415    -1.0206706277     0.7629408157
   12      C       3.2374561202     0.1358815388     0.0533059496
   13      O       3.7006473022     0.6994964504    -0.9206310122
   14      C       3.7702112287     0.2968435720     1.4508289125
   15      H       2.9703769730     0.4902000473     2.1704929080
   16      H       4.4786061841     1.1206820182     1.4688729885
   17      H       4.2813230013    -0.6152078024     1.7690783773
   18      C      -3.4058390156     0.0690626611    -0.0229953970
   19      O      -4.4438607289     0.4434455637    -0.4964382632
   20      O      -3.3265736701    -0.9873002640     0.7901038058
   21      H      -2.3851134870    -1.1607757303     0.9922924753
 ----------------------------------------------------------------

    9    -987.6977544199      4.45e-09  Convergence criterion met
 Total energy in the final basis set =     -987.6977544199
 Final energy is   -987.697754419921
 **  OPTIMIZATION CONVERGED  **

                    Orbital Energies (a.u.)
 --------------------------------------------------------------

 Alpha MOs
 -- Occupied --
-89.003 -19.207 -19.203 -19.150 -19.143 -14.388 -10.334 -10.325
-10.299 -10.271 -10.231 -10.199  -8.012  -5.883  -5.879  -5.874
 -1.101  -1.079  -1.043  -1.016  -0.937  -0.811  -0.773  -0.736
 -0.670  -0.594  -0.584  -0.562  -0.503  -0.501  -0.482  -0.475
 -0.459  -0.443  -0.428  -0.417  -0.404  -0.401  -0.390  -0.382
 -0.381  -0.370  -0.352  -0.338  -0.290  -0.277  -0.272  -0.252
 -0.246  -0.236

          Ground-State Mulliken Net Atomic Charges

     Atom                 Charge (a.u.)
  ----------------------------------------
      1 C                    -0.522172
      2 H                     0.222256
      3 H                     0.236237
      4 C                     0.268852
      5 O                    -0.491172
      6 S                     0.197167
      7 C                    -0.311768
      8 H                     0.216719
      9 H                     0.233590
     10 N                    -0.590361
     11 H                     0.361896
     12 C                     0.613934
     13 O                    -0.490388
     14 C                    -0.584415
     15 H                     0.172210
     16 H                     0.205050
     17 H                     0.196039
     18 C                     0.644802
     19 O                    -0.441822
     20 O                    -0.587141
     21 H                     0.450487
  ----------------------------------------
  Sum of atomic charges =    -0.000000

                    Cartesian Multipole Moments
 -----------------------------------------------------------------
    Charge (ESU x 10^10)
                -0.0000
    Dipole Moment (Debye)
         X       3.2638      Y      -0.8109      Z       2.2125
       Tot       4.0256
    Quadrupole Moments (Debye-Ang)
        XX    -106.0059     XY      -7.2404     YY     -75.4471
        XZ       5.8903     YZ       4.2711     ZZ     -73.6929

 Total job time:  4681.28s(wall), 32453.12s(cpu)
        *  Thank you very much for using Q-Chem.  Have a nice day.  *
