 Q-Chem 5.1, Q-Chem, Inc., Pleasanton, CA (2018)
 Q-Chem 5.1.1 for Intel X86 EM64T Linux

User input:
--------------------------------------------------------------
$comment
serine geom opt with no constraints.
$end

$molecule
0  1
C         -6.71375        2.83702        0.25998
C         -5.39735        3.48549       -0.09496
C         -4.15105        2.57629        0.05045
H         -5.29186        4.35988        0.58351
H         -5.44863        3.86086       -1.14017
C         -2.88058        3.43896       -0.14275
C         -1.57266        2.67240        0.07893
H         -2.90476        4.27114        0.59565
H         -2.87660        3.87944       -1.16430
O         -7.84719        3.55980        0.14079
H         -8.71100        3.18652        0.36675
O         -6.77019        1.68886        0.67594
N         -4.18556        1.49198       -0.94112
H         -4.13637        2.15374        1.08091
H         -3.41741        0.81205       -0.74651
H         -5.06935        0.94326       -0.86693
O         -0.49511        3.55750       -0.04976
H         -1.46865        1.86605       -0.67805
H         -1.57721        2.23894        1.10414
H          0.32379        3.02187        0.11643

$end

$rem
JOBTYPE           opt
EXCHANGE        b3lyp
BASIS             6-31G
--------------------------------------------------------------

   15    -477.4060718810      1.08e-09  Convergence criterion met
 Total energy in the final basis set =     -477.4060718810
   12    -477.4184862716      2.55e-09  Convergence criterion met
 Total energy in the final basis set =     -477.4184862716
   12    -477.4200408646      5.76e-09  Convergence criterion met
 Total energy in the final basis set =     -477.4200408646
   12    -477.4204402784      2.23e-09  Convergence criterion met
 Total energy in the final basis set =     -477.4204402784
   12    -477.4207159834      3.04e-09  Convergence criterion met
 Total energy in the final basis set =     -477.4207159834
   11    -477.4208128571      4.77e-09  Convergence criterion met
 Total energy in the final basis set =     -477.4208128571
   11    -477.4209118854      6.35e-09  Convergence criterion met
 Total energy in the final basis set =     -477.4209118854
   10    -477.4209304316      9.04e-09  Convergence criterion met
   10    -477.4209387665      7.76e-09  Convergence criterion met
 Total energy in the final basis set =     -477.4209387665
   10    -477.4209421703      5.28e-09  Convergence criterion met
 Total energy in the final basis set =     -477.4209421703
   10    -477.4209448450      2.84e-09  Convergence criterion met
 Total energy in the final basis set =     -477.4209448450
   11    -477.4209495049      2.21e-09  Convergence criterion met
 Total energy in the final basis set =     -477.4209495049
   10    -477.4209524949      6.51e-09  Convergence criterion met
 Total energy in the final basis set =     -477.4209524949
   10    -477.4209544302      5.21e-09  Convergence criterion met
 Total energy in the final basis set =     -477.4209544302

             Standard Nuclear Orientation (Angstroms)
    I     Atom           X                Y                Z
 ----------------------------------------------------------------
    1      C       2.3302023078     0.1081662656    -0.0928890643
    2      C       0.9867616059     0.6891411462     0.2527505326
    3      C      -0.1961294852    -0.2289152519    -0.1068025917
    4      H       0.8960651665     1.6606549860    -0.2468841841
    5      H       0.9695010100     0.8789064585     1.3346758216
    6      C      -1.5190527261     0.5095905073     0.1654594016
    7      C      -2.7583893548    -0.2265178866    -0.3331631032
    8      H      -1.4996309659     1.4865494474    -0.3334573916
    9      H      -1.6167776816     0.6893999432     1.2423959038
   10      O       3.3279775212     1.0569319333    -0.0235679220
   11      H       4.1981849930     0.6500749898    -0.2289543181
   12      O       2.5759951326    -1.0651676451    -0.4008990640
   13      N      -0.1138431830    -1.4512870505     0.6999150135
   14      H      -0.1360600764    -0.4313882764    -1.1955551917
   15      H      -0.9476289138    -2.0257348058     0.6935375215
   16      H       0.7290689225    -1.9881009037     0.5254816526
   17      O      -3.8857456540     0.6720025447    -0.1197619332
   18      H      -2.9140404439    -1.1675251799     0.2161676515
   19      H      -2.6508006427    -0.4712403065    -1.4015971714
   20      H      -4.7210763239     0.2406417090    -0.3880254853
 ----------------------------------------------------------------

    9    -477.4209549741      4.81e-09  Convergence criterion met
 Total energy in the final basis set =     -477.4209549741
 Final energy is   -477.420954974098
 **  OPTIMIZATION CONVERGED  **

                    Orbital Energies (a.u.)
 --------------------------------------------------------------

 Alpha MOs
 -- Occupied --
-19.199 -19.156 -19.140 -14.296 -10.339 -10.235 -10.222 -10.200
-10.179  -1.120  -1.033  -1.015  -0.887  -0.783  -0.758  -0.668
 -0.611  -0.575  -0.520  -0.503  -0.498  -0.483  -0.475  -0.462
 -0.438  -0.414  -0.389  -0.379  -0.364  -0.357  -0.350  -0.324
 -0.322  -0.285  -0.268  -0.215

          Ground-State Mulliken Net Atomic Charges

     Atom                 Charge (a.u.)
  ----------------------------------------
      1 C                     0.491113
      2 C                    -0.283270
      3 C                     0.030915
      4 H                     0.170194
      5 H                     0.195823
      6 C                    -0.228868
      7 C                    -0.036296
      8 H                     0.143575
      9 H                     0.155045
     10 O                    -0.553449
     11 H                     0.384396
     12 O                    -0.431302
     13 N                    -0.721164
     14 H                     0.112499
     15 H                     0.274681
     16 H                     0.308699
     17 O                    -0.613129
     18 H                     0.119920
     19 H                     0.124035
     20 H                     0.356582
  ----------------------------------------
  Sum of atomic charges =     0.000000

                    Cartesian Multipole Moments
 -----------------------------------------------------------------
    Charge (ESU x 10^10)
                 0.0000
    Dipole Moment (Debye)
         X      -0.4484      Y      -0.8087      Z      -1.2769
       Tot       1.5766
    Quadrupole Moments (Debye-Ang)
        XX     -43.3293     XY       9.9268     YY     -57.6654
        XZ       3.2908     YZ      -0.4833     ZZ     -56.4210

 Total job time:  48.89s(wall), 389.61s(cpu)
        *  Thank you very much for using Q-Chem.  Have a nice day.  *
