 Q-Chem 5.1, Q-Chem, Inc., Pleasanton, CA (2018)
 Q-Chem 5.1.1 for Intel X86 EM64T Linux

User input:
--------------------------------------------------------------
$comment
GHSLG peptide geom opt with no constraints.
$end

$molecule
0 1
C   -3.6090300    1.2856720   -0.0352010
C   -2.2815710    1.9794240    0.0577270
H   -4.1728290    1.4354020    0.9093820
H   -3.4865850    0.1952710   -0.2049090
H   -4.1924710    1.7116110   -0.8781990
N   -1.1212570    1.2786480   -0.0634190
C    0.1746100    1.9275270    0.0244690
H   -1.1663000    0.2596880   -0.2213500
C    1.3077920    0.9160740   -0.1457980
H    0.2731950    2.4193900    1.0170590
H    0.2543550    2.6988890   -0.7726350
S    2.9251950    1.7376280   -0.0080750
H    1.2424210    0.3988500   -1.1269900
H    1.2448690    0.1393200    0.6457730
H    2.8070720    2.3482990   -1.2714010
O   -2.2601740    3.1879160    0.2448030

$end

$rem
JOBTYPE           opt
EXCHANGE        B97M-V
BASIS             6-31G*
--------------------------------------------------------------

   14    -685.8409026452      5.68e-09  Convergence criterion met
 Total energy in the final basis set =     -685.8409026452
   11    -685.8475030122      9.88e-09  Convergence criterion met
 Total energy in the final basis set =     -685.8475030122
   11    -685.8477974155      4.82e-09  Convergence criterion met
 Total energy in the final basis set =     -685.8477974155
   10    -685.8478345119      7.84e-09  Convergence criterion met
 Total energy in the final basis set =     -685.8478345119
   10    -685.8478581086      3.45e-09  Convergence criterion met
 Total energy in the final basis set =     -685.8478581086
   11    -685.8479521714      6.74e-09  Convergence criterion met
 Total energy in the final basis set =     -685.8479521714
   11    -685.8480796066      3.54e-09  Convergence criterion met
 Total energy in the final basis set =     -685.8480796066
   12    -685.8400186752      3.63e-09  Convergence criterion met
   11    -685.8519058281      5.76e-09  Convergence criterion met
 Total energy in the final basis set =     -685.8519058281
   11    -685.8517308844      8.68e-09  Convergence criterion met
 Total energy in the final basis set =     -685.8517308844
   11    -685.8520405250      4.18e-09  Convergence criterion met
 Total energy in the final basis set =     -685.8520405250
   11    -685.8520566596      2.88e-09  Convergence criterion met
 Total energy in the final basis set =     -685.8520566596
   10    -685.8520631116      4.20e-09  Convergence criterion met
 Total energy in the final basis set =     -685.8520631116
    8    -685.8520641229      4.87e-09  Convergence criterion met
 Total energy in the final basis set =     -685.8520641229

             Standard Nuclear Orientation (Angstroms)
    I     Atom           X                Y                Z
 ----------------------------------------------------------------
    1      C       3.2007643031    -0.6523757040     0.1545626964
    2      C       1.8377952847    -0.0270017071     0.3009073133
    3      H       3.9530151116     0.1366896658     0.1695378730
    4      H       3.3259753031    -1.2406304709    -0.7565475652
    5      H       3.3944238104    -1.2925453186     1.0169146125
    6      N       0.9312793696    -0.3553800316    -0.6620438779
    7      C      -0.4313267972     0.1235841032    -0.5856512212
    8      H       1.1576949776    -1.0732876852    -1.3294465074
    9      C      -1.2544498689    -0.6557078033     0.4283488341
   10      H      -0.8837052664     0.0636776571    -1.5761237065
   11      H      -0.3943681201     1.1739182403    -0.2954310122
   12      S      -2.9745858247    -0.0751855149     0.5347791956
   13      H      -0.7789284163    -0.6038956564     1.4075895157
   14      H      -1.3193909262    -1.7079283222     0.1449972887
   15      H      -2.6860519700     1.1314961169     1.0596270413
   16      O       1.5610553771     0.7351551304     1.2143417433
 ----------------------------------------------------------------

    8    -685.8520645715      5.25e-09  Convergence criterion met
 Total energy in the final basis set =     -685.8520645715
 Final energy is   -685.852064571529
 **  OPTIMIZATION CONVERGED  **

                    Orbital Energies (a.u.)
 --------------------------------------------------------------

 Alpha MOs
 -- Occupied --
-88.957 -19.122 -14.373 -10.283 -10.224 -10.216 -10.189  -7.966
 -5.838  -5.834  -5.827  -1.023  -0.915  -0.781  -0.728  -0.672
 -0.597  -0.563  -0.488  -0.449  -0.437  -0.423  -0.398  -0.382
 -0.371  -0.364  -0.339  -0.330  -0.306  -0.239  -0.220  -0.213

          Ground-State Mulliken Net Atomic Charges

     Atom                 Charge (a.u.)
  ----------------------------------------
      1 C                    -0.577751
      2 C                     0.624960
      3 H                     0.200537
      4 H                     0.151362
      5 H                     0.196632
      6 N                    -0.622238
      7 C                    -0.127796
      8 H                     0.339337
      9 C                    -0.449336
     10 H                     0.167800
     11 H                     0.186440
     12 S                    -0.080199
     13 H                     0.216694
     14 H                     0.180457
     15 H                     0.109610
     16 O                    -0.516512
  ----------------------------------------
  Sum of atomic charges =     0.000000

                    Cartesian Multipole Moments
 -----------------------------------------------------------------
    Charge (ESU x 10^10)
                 0.0000
    Dipole Moment (Debye)
         X       1.7878      Y      -1.9153      Z      -2.4197
       Tot       3.5665
    Quadrupole Moments (Debye-Ang)
        XX     -53.7543     XY      -5.9541     YY     -47.9917
        XZ      -3.1453     YZ       0.7299     ZZ     -51.9207

 Total job time:  1984.27s(wall), 13899.93s(cpu)
        *  Thank you very much for using Q-Chem.  Have a nice day.  *
